<?xml version="1.0" encoding="UTF-8"?>
<java version="10.0.1" class="java.beans.XMLDecoder">
 <object class="parisInit.State">
  <void property="ADesiredVals">
   <array class="double" length="10">
    <void index="0">
     <double>2.016649667265168</double>
    </void>
    <void index="1">
     <double>0.8070340896401149</double>
    </void>
    <void index="2">
     <double>0.9353317462928935</double>
    </void>
    <void index="3">
     <double>5.157347128765112</double>
    </void>
    <void index="4">
     <double>1.3633229571104668</double>
    </void>
    <void index="5">
     <double>2.304735157609842</double>
    </void>
    <void index="6">
     <double>1.2683325178389928</double>
    </void>
    <void index="7">
     <double>3.4825183707499656</double>
    </void>
    <void index="8">
     <double>0.49554119969258753</double>
    </void>
    <void index="9">
     <double>0.22666000421478674</double>
    </void>
   </array>
  </void>
  <void property="PDesiredVals">
   <array class="double" length="8">
    <void index="0">
     <double>79.22678136589266</double>
    </void>
    <void index="1">
     <double>946.7672437543391</double>
    </void>
    <void index="2">
     <double>334.32050036851336</double>
    </void>
    <void index="3">
     <double>25.192035075628347</double>
    </void>
    <void index="4">
     <double>0.02563921156452839</double>
    </void>
    <void index="5">
     <double>5.628880263771708E-4</double>
    </void>
    <void index="6">
     <double>0.13509100616988676</double>
    </void>
    <void index="7">
     <double>281.75207144022175</double>
    </void>
   </array>
  </void>
  <void property="mixture">
   <object class="parisWork.Mixture" id="Mixture0">
    <void property="airIndex">
     <double>0.8827377875386785</double>
    </void>
    <void property="boilingPoint">
     <double>334.32050036851336</double>
    </void>
    <void id="Vector0" property="chemicals">
     <void method="add">
      <object class="parisWork.Chemical" id="Chemical0">
       <void property="CAS">
        <string>108-88-3</string>
       </void>
       <void property="PCOP">
        <double>1.352015029471396</double>
       </void>
       <void property="airIndex">
        <double>0.47732025016077123</double>
       </void>
       <void property="antoineConstantA">
        <double>6.26110302</double>
       </void>
       <void property="antoineConstantB">
        <double>1457.2871</double>
       </void>
       <void property="antoineConstantC">
        <double>-41.323</double>
       </void>
       <void property="antoineSource">
        <string>Yaws</string>
       </void>
       <void property="antoineTmax">
        <double>591.79</double>
       </void>
       <void property="antoineTmin">
        <double>178.18</double>
       </void>
       <void property="aquaticTox">
        <double>0.01233290646515931</double>
       </void>
       <void property="boilingPoint">
        <double>383.75</double>
       </void>
       <void property="boilingPointSource">
        <string>Exp</string>
       </void>
       <void property="density">
        <double>870.0</double>
       </void>
       <void property="densitySource">
        <string>Exp</string>
       </void>
       <void property="environmentalIndex">
        <double>12.79483448347623</double>
       </void>
       <void property="flashPoint">
        <double>283.15</double>
       </void>
       <void property="flashPointSource">
        <string>Exp</string>
       </void>
       <void property="formula">
        <string>C7H8</string>
       </void>
       <void property="htoxIngestion">
        <double>0.594086916035177</double>
       </void>
       <void property="htoxInhalation">
        <double>0.006445128688336862</double>
       </void>
       <void property="infDilActCoef_acetone">
        <double>1.5575</double>
       </void>
       <void property="infDilActCoef_benzene">
        <double>0.9977</double>
       </void>
       <void property="infDilActCoef_cis_2_heptene">
        <double>1.5479</double>
       </void>
       <void property="infDilActCoef_diethyl_ether">
        <double>0.9046</double>
       </void>
       <void property="infDilActCoef_dimethyl_disulfide">
        <double>1.0217</double>
       </void>
       <void property="infDilActCoef_ethanol">
        <double>13.4033</double>
       </void>
       <void property="infDilActCoef_n_heptadecane">
        <double>1.3296</double>
       </void>
       <void property="infDilActCoef_n_propyl_chloride">
        <double>0.9202</double>
       </void>
       <void property="infDilActCoef_n_propylamine">
        <double>1.5358</double>
       </void>
       <void property="infDilActCoef_water">
        <double>656.2281</double>
       </void>
       <void property="meltingPoint">
        <double>178.25</double>
       </void>
       <void property="meltingPointSource">
        <string>Exp</string>
       </void>
       <void property="molecularWeight">
        <double>92.14</double>
       </void>
       <void property="name">
        <string>methylbenzene</string>
       </void>
       <void property="omega">
        <double>0.264</double>
       </void>
       <void property="pc">
        <double>41.77</double>
       </void>
       <void property="surfaceTension">
        <double>0.02793</double>
       </void>
       <void property="surfaceTensionSource">
        <string>Exp</string>
       </void>
       <void property="synonyms">
        <void method="add">
         <string>108-88-3</string>
        </void>
        <void method="add">
         <string>AI3-02261</string>
        </void>
        <void method="add">
         <string>Antisal 1a</string>
        </void>
        <void method="add">
         <string>Benzene, methyl-</string>
        </void>
        <void method="add">
         <string>CCRIS 2366</string>
        </void>
        <void method="add">
         <string>CP 25</string>
        </void>
        <void method="add">
         <string>Caswell No. 859</string>
        </void>
        <void method="add">
         <string>EINECS 203-625-9</string>
        </void>
        <void method="add">
         <string>EPA Pesticide Chemical Code 080601</string>
        </void>
        <void method="add">
         <string>HSDB 131</string>
        </void>
        <void method="add">
         <string>Methacide</string>
        </void>
        <void method="add">
         <string>Methane, phenyl-</string>
        </void>
        <void method="add">
         <string>Methylbenzene</string>
        </void>
        <void method="add">
         <string>Methylbenzol</string>
        </void>
        <void method="add">
         <string>NCI-C07272</string>
        </void>
        <void method="add">
         <string>NSC 406333</string>
        </void>
        <void method="add">
         <string>Phenylmethane</string>
        </void>
        <void method="add">
         <string>RCRA waste no. U220</string>
        </void>
        <void method="add">
         <string>RCRA waste number U220</string>
        </void>
        <void method="add">
         <string>Tolu-Sol</string>
        </void>
        <void method="add">
         <string>Tolueen</string>
        </void>
        <void method="add">
         <string>Tolueen [Dutch]</string>
        </void>
        <void method="add">
         <string>Toluen</string>
        </void>
        <void method="add">
         <string>Toluen [Czech]</string>
        </void>
        <void method="add">
         <string>Toluene</string>
        </void>
        <void method="add">
         <string>Toluene [UN1294]  [Flammable liquid]</string>
        </void>
        <void method="add">
         <string>Tolueno</string>
        </void>
        <void method="add">
         <string>Tolueno [Spanish]</string>
        </void>
        <void method="add">
         <string>Toluol</string>
        </void>
        <void method="add">
         <string>Toluolo</string>
        </void>
        <void method="add">
         <string>Toluolo [Italian]</string>
        </void>
        <void method="add">
         <string>UN 1294</string>
        </void>
        <void method="add">
         <string>UN1294</string>
        </void>
        <void method="add">
         <string>UNII-3FPU23BG52</string>
        </void>
       </void>
       <void property="tc">
        <double>597.39</double>
       </void>
       <void property="terrestrialTox">
        <double>0.594086916035177</double>
       </void>
       <void property="thermalConductivity">
        <double>0.1331</double>
       </void>
       <void property="thermalConductivitySource">
        <string>Exp</string>
       </void>
       <void property="vaporPressure">
        <double>3.78</double>
       </void>
       <void property="vaporPressureSource">
        <string>Exp</string>
       </void>
       <void property="viscosity">
        <double>5.5E-4</double>
       </void>
       <void property="viscositySource">
        <string>Exp</string>
       </void>
      </object>
     </void>
     <void method="add">
      <object class="parisWork.Chemical" id="Chemical1">
       <void property="CAS">
        <string>75-09-2</string>
       </void>
       <void property="GWP">
        <double>0.005549687959050737</double>
       </void>
       <void property="PCOP">
        <double>0.013238225129910316</double>
       </void>
       <void property="airIndex">
        <double>1.5659368227755985</double>
       </void>
       <void property="antoineConstantA">
        <double>6.23954302</double>
       </void>
       <void property="antoineConstantB">
        <double>1152.4136</double>
       </void>
       <void property="antoineConstantC">
        <double>-40.708</double>
       </void>
       <void property="antoineSource">
        <string>Yaws</string>
       </void>
       <void property="antoineTmax">
        <double>510.0</double>
       </void>
       <void property="antoineTmin">
        <double>178.01</double>
       </void>
       <void property="aquaticTox">
        <double>0.001319909722023739</double>
       </void>
       <void property="boilingPoint">
        <double>313.15</double>
       </void>
       <void property="boilingPointSource">
        <string>Exp</string>
       </void>
       <void property="density">
        <double>1250.0</double>
       </void>
       <void property="densitySource">
        <string>Exp</string>
       </void>
       <void property="environmentalIndex">
        <double>2.7403894398572977</double>
       </void>
       <void property="flashPoint">
        <double>312.65</double>
       </void>
       <void property="flashPointSource">
        <string>Exp</string>
       </void>
       <void property="formula">
        <string>CH2Cl2</string>
       </void>
       <void property="htoxIngestion">
        <double>0.23620430547533705</double>
       </void>
       <void property="htoxInhalation">
        <double>0.055561454209800534</double>
       </void>
       <void property="infDilActCoef_acetone">
        <double>0.4301</double>
       </void>
       <void property="infDilActCoef_benzene">
        <double>0.8749</double>
       </void>
       <void property="infDilActCoef_cis_2_heptene">
        <double>2.4126</double>
       </void>
       <void property="infDilActCoef_diethyl_ether">
        <double>0.7676</double>
       </void>
       <void property="infDilActCoef_dimethyl_disulfide">
        <double>0.9397</double>
       </void>
       <void property="infDilActCoef_ethanol">
        <double>6.2733</double>
       </void>
       <void property="infDilActCoef_n_heptadecane">
        <double>3.9734</double>
       </void>
       <void property="infDilActCoef_n_propyl_chloride">
        <double>1.2124</double>
       </void>
       <void property="infDilActCoef_n_propylamine">
        <double>1.047</double>
       </void>
       <void property="infDilActCoef_water">
        <double>1.7743</double>
       </void>
       <void property="meltingPoint">
        <double>178.05</double>
       </void>
       <void property="meltingPointSource">
        <string>Exp</string>
       </void>
       <void property="molecularWeight">
        <double>84.93</double>
       </void>
       <void property="name">
        <string>bis(chloranyl)methane</string>
       </void>
       <void property="omega">
        <double>0.192</double>
       </void>
       <void property="pc">
        <double>57.23</double>
       </void>
       <void property="surfaceTension">
        <double>0.0272</double>
       </void>
       <void property="surfaceTensionSource">
        <string>Exp</string>
       </void>
       <void property="synonyms">
        <void method="add">
         <string>4-01-00-00035 (Beilstein Handbook Reference)</string>
        </void>
        <void method="add">
         <string>75-09-2</string>
        </void>
        <void method="add">
         <string>AI3-01773</string>
        </void>
        <void method="add">
         <string>Aerothene MM</string>
        </void>
        <void method="add">
         <string>BRN 1730800</string>
        </void>
        <void method="add">
         <string>CCRIS 392</string>
        </void>
        <void method="add">
         <string>Caswell No. 568</string>
        </void>
        <void method="add">
         <string>Chlorure de methylene</string>
        </void>
        <void method="add">
         <string>Chlorure de methylene [French]</string>
        </void>
        <void method="add">
         <string>Dichloromethane</string>
        </void>
        <void method="add">
         <string>Dichloromethane [UN1593]  [Poison]</string>
        </void>
        <void method="add">
         <string>EINECS 200-838-9</string>
        </void>
        <void method="add">
         <string>EPA Pesticide Chemical Code 042004</string>
        </void>
        <void method="add">
         <string>F 30</string>
        </void>
        <void method="add">
         <string>F 30 (chlorocarbon)</string>
        </void>
        <void method="add">
         <string>Freon 30</string>
        </void>
        <void method="add">
         <string>HCC 30</string>
        </void>
        <void method="add">
         <string>HSDB 66</string>
        </void>
        <void method="add">
         <string>Khladon 30</string>
        </void>
        <void method="add">
         <string>Metaclen</string>
        </void>
        <void method="add">
         <string>Methane dichloride</string>
        </void>
        <void method="add">
         <string>Methane, dichloro-</string>
        </void>
        <void method="add">
         <string>Methylene bichloride</string>
        </void>
        <void method="add">
         <string>Methylene chloride</string>
        </void>
        <void method="add">
         <string>Methylene dichloride</string>
        </void>
        <void method="add">
         <string>Methylenum chloratum</string>
        </void>
        <void method="add">
         <string>Metylenu chlorek</string>
        </void>
        <void method="add">
         <string>Metylenu chlorek [Polish]</string>
        </void>
        <void method="add">
         <string>NCI-C50102</string>
        </void>
        <void method="add">
         <string>NSC 406122</string>
        </void>
        <void method="add">
         <string>Narkotil</string>
        </void>
        <void method="add">
         <string>R 30</string>
        </void>
        <void method="add">
         <string>R30 (refrigerant)</string>
        </void>
        <void method="add">
         <string>RCRA waste no. U080</string>
        </void>
        <void method="add">
         <string>RCRA waste number U080</string>
        </void>
        <void method="add">
         <string>Solaesthin</string>
        </void>
        <void method="add">
         <string>Soleana VDA</string>
        </void>
        <void method="add">
         <string>Solmethine</string>
        </void>
        <void method="add">
         <string>UN 1593</string>
        </void>
        <void method="add">
         <string>UN1593</string>
        </void>
        <void method="add">
         <string>UNII-588X2YUY0A</string>
        </void>
       </void>
       <void property="tc">
        <double>517.18</double>
       </void>
       <void property="terrestrialTox">
        <double>0.23620430547533705</double>
       </void>
       <void property="thermalConductivity">
        <double>0.13923</double>
       </void>
       <void property="thermalConductivitySource">
        <string>Exp</string>
       </void>
       <void property="vaporPressure">
        <double>57.9</double>
       </void>
       <void property="vaporPressureSource">
        <string>Exp</string>
       </void>
       <void property="viscosity">
        <double>4.1E-4</double>
       </void>
       <void property="viscositySource">
        <string>Exp</string>
       </void>
      </object>
     </void>
     <void method="add">
      <object class="parisWork.Chemical" id="Chemical2">
       <void property="CAS">
        <string>67-63-0</string>
       </void>
       <void property="PCOP">
        <double>0.20225066170696315</double>
       </void>
       <void property="airIndex">
        <double>0.10657961151417451</double>
       </void>
       <void property="antoineConstantA">
        <double>6.95546302</double>
       </void>
       <void property="antoineConstantB">
        <double>1483.3042</double>
       </void>
       <void property="antoineConstantC">
        <double>-55.737</double>
       </void>
       <void property="antoineSource">
        <string>Yaws</string>
       </void>
       <void property="antoineTmax">
        <double>508.31</double>
       </void>
       <void property="antoineTmin">
        <double>185.28</double>
       </void>
       <void property="aquaticTox">
        <double>4.2135931134968977E-5</double>
       </void>
       <void property="boilingPoint">
        <double>355.45</double>
       </void>
       <void property="boilingPointSource">
        <string>Exp</string>
       </void>
       <void property="density">
        <double>790.0</double>
       </void>
       <void property="densitySource">
        <string>Exp</string>
       </void>
       <void property="environmentalIndex">
        <double>1.7849882870535096</double>
       </void>
       <void property="flashPoint">
        <double>284.82</double>
       </void>
       <void property="flashPointSource">
        <string>Exp</string>
       </void>
       <void property="formula">
        <string>C3H8O</string>
       </void>
       <void property="htoxIngestion">
        <double>0.074886181663724</double>
       </void>
       <void property="htoxInhalation">
        <double>0.004932496445155762</double>
       </void>
       <void property="infDilActCoef_acetone">
        <double>2.2424</double>
       </void>
       <void property="infDilActCoef_benzene">
        <double>3.9233</double>
       </void>
       <void property="infDilActCoef_cis_2_heptene">
        <double>5.8914</double>
       </void>
       <void property="infDilActCoef_diethyl_ether">
        <double>2.6409</double>
       </void>
       <void property="infDilActCoef_dimethyl_disulfide">
        <double>0.2162</double>
       </void>
       <void property="infDilActCoef_ethanol">
        <double>1.0189</double>
       </void>
       <void property="infDilActCoef_n_heptadecane">
        <double>32.0806</double>
       </void>
       <void property="infDilActCoef_n_propyl_chloride">
        <double>2.8174</double>
       </void>
       <void property="infDilActCoef_n_propylamine">
        <double>0.3123</double>
       </void>
       <void property="infDilActCoef_water">
        <double>3.8149</double>
       </void>
       <void property="meltingPoint">
        <double>183.65</double>
       </void>
       <void property="meltingPointSource">
        <string>Exp</string>
       </void>
       <void property="molecularWeight">
        <double>60.1</double>
       </void>
       <void property="name">
        <string>propan-2-ol</string>
       </void>
       <void property="omega">
        <double>0.563</double>
       </void>
       <void property="pc">
        <double>48.88</double>
       </void>
       <void property="replacementScore">
        <double>1.3000000076078007E10</double>
       </void>
       <void property="surfaceTension">
        <double>0.02093</double>
       </void>
       <void property="surfaceTensionSource">
        <string>Exp</string>
       </void>
       <void property="synonyms">
        <void method="add">
         <string>1-Methylethanol</string>
        </void>
        <void method="add">
         <string>1-Methylethyl alcohol</string>
        </void>
        <void method="add">
         <string>2-Hydroxypropane</string>
        </void>
        <void method="add">
         <string>2-Propanol</string>
        </void>
        <void method="add">
         <string>2-Propyl alcohol</string>
        </void>
        <void method="add">
         <string>4-01-00-01461 (Beilstein Handbook Reference)</string>
        </void>
        <void method="add">
         <string>67-63-0</string>
        </void>
        <void method="add">
         <string>8013-70-5</string>
        </void>
        <void method="add">
         <string>AI3-01636</string>
        </void>
        <void method="add">
         <string>Alcojel</string>
        </void>
        <void method="add">
         <string>Alcolo</string>
        </void>
        <void method="add">
         <string>Alcool isopropilico</string>
        </void>
        <void method="add">
         <string>Alcool isopropilico [Italian]</string>
        </void>
        <void method="add">
         <string>Alcool isopropylique</string>
        </void>
        <void method="add">
         <string>Alcool isopropylique [French]</string>
        </void>
        <void method="add">
         <string>Alcosolve</string>
        </void>
        <void method="add">
         <string>Alcosolve 2</string>
        </void>
        <void method="add">
         <string>Alkolave</string>
        </void>
        <void method="add">
         <string>Arquad DMCB</string>
        </void>
        <void method="add">
         <string>Avantin</string>
        </void>
        <void method="add">
         <string>Avantine</string>
        </void>
        <void method="add">
         <string>BRN 0635639</string>
        </void>
        <void method="add">
         <string>CCRIS 2308</string>
        </void>
        <void method="add">
         <string>Caswell No. 507</string>
        </void>
        <void method="add">
         <string>Combi-schutz</string>
        </void>
        <void method="add">
         <string>Dimethylcarbinol</string>
        </void>
        <void method="add">
         <string>EINECS 200-661-7</string>
        </void>
        <void method="add">
         <string>EPA Pesticide Chemical Code 047601</string>
        </void>
        <void method="add">
         <string>FEMA No. 2929</string>
        </void>
        <void method="add">
         <string>FEMA Number 2929</string>
        </void>
        <void method="add">
         <string>HSDB 116</string>
        </void>
        <void method="add">
         <string>Hartosol</string>
        </void>
        <void method="add">
         <string>Hibistat</string>
        </void>
        <void method="add">
         <string>Imsol A</string>
        </void>
        <void method="add">
         <string>Iso-propyl alcohol</string>
        </void>
        <void method="add">
         <string>Iso-propylalkohol</string>
        </void>
        <void method="add">
         <string>Iso-propylalkohol [German]</string>
        </void>
        <void method="add">
         <string>Isohol</string>
        </void>
        <void method="add">
         <string>Isopropanol</string>
        </void>
        <void method="add">
         <string>Isopropanol or isopropyl alcohol</string>
        </void>
        <void method="add">
         <string>Isopropanol or isopropyl alcohol [UN1219]  [Flammable liquid]</string>
        </void>
        <void method="add">
         <string>Isopropyl alcohol</string>
        </void>
        <void method="add">
         <string>Isopropyl alcohol (manufacture strong-acid process)</string>
        </void>
        <void method="add">
         <string>Isopropyl alcohol (manufacturing-strong acid process only)</string>
        </void>
        <void method="add">
         <string>Isopropyl alcohol (only persons who manufacture by the strong acid process are subject, supplier notification not required)</string>
        </void>
        <void method="add">
         <string>Isopropyl alcohol, rubbing</string>
        </void>
        <void method="add">
         <string>Lavacol</string>
        </void>
        <void method="add">
         <string>Lutosol</string>
        </void>
        <void method="add">
         <string>NSC 135801</string>
        </void>
        <void method="add">
         <string>Petrohol</string>
        </void>
        <void method="add">
         <string>Propol</string>
        </void>
        <void method="add">
         <string>Spectrar</string>
        </void>
        <void method="add">
         <string>Sterisol hand disinfectant</string>
        </void>
        <void method="add">
         <string>Takineocol</string>
        </void>
        <void method="add">
         <string>UN1219</string>
        </void>
        <void method="add">
         <string>UNII-ND2M416302</string>
        </void>
        <void method="add">
         <string>Visco 1152</string>
        </void>
        <void method="add">
         <string>i-Propanol</string>
        </void>
        <void method="add">
         <string>i-Propanol [German]</string>
        </void>
        <void method="add">
         <string>i-Propyl alcohol</string>
        </void>
        <void method="add">
         <string>i-Propylalkohol</string>
        </void>
        <void method="add">
         <string>i-Propylalkohol [German]</string>
        </void>
        <void method="add">
         <string>n-Propan-2-ol</string>
        </void>
        <void method="add">
         <string>sec-Propyl alcohol</string>
        </void>
       </void>
       <void property="tc">
        <double>496.83</double>
       </void>
       <void property="terrestrialTox">
        <double>0.074886181663724</double>
       </void>
       <void property="thermalConductivity">
        <double>0.1344</double>
       </void>
       <void property="thermalConductivitySource">
        <string>Exp</string>
       </void>
       <void property="vaporPressure">
        <double>6.05</double>
       </void>
       <void property="vaporPressureSource">
        <string>Exp</string>
       </void>
       <void property="viscosity">
        <double>0.00204</double>
       </void>
       <void property="viscositySource">
        <string>Exp</string>
       </void>
      </object>
     </void>
    </void>
    <void property="chemicals">
     <object idref="Vector0"/>
    </void>
    <void property="density">
     <double>946.7672437543391</double>
    </void>
    <void property="environmentalIndex">
     <double>6.523317169103923</double>
    </void>
    <void property="flashPoint">
     <double>281.75207144022175</double>
    </void>
    <void property="infDilActCoef_acetone">
     <double>0.9353317462928935</double>
    </void>
    <void property="infDilActCoef_benzene">
     <double>1.3633229571104668</double>
    </void>
    <void property="infDilActCoef_cis_2_heptene">
     <double>2.304735157609842</double>
    </void>
    <void property="infDilActCoef_diethyl_ether">
     <double>0.8070340896401149</double>
    </void>
    <void property="infDilActCoef_dimethyl_disulfide">
     <double>0.22666000421478674</double>
    </void>
    <void property="infDilActCoef_ethanol">
     <double>2.016649667265168</double>
    </void>
    <void property="infDilActCoef_n_heptadecane">
     <double>3.4825183707499656</double>
    </void>
    <void property="infDilActCoef_n_propyl_chloride">
     <double>1.2683325178389928</double>
    </void>
    <void property="infDilActCoef_n_propylamine">
     <double>0.49554119969258753</double>
    </void>
    <void property="infDilActCoef_water">
     <double>5.157347128765112</double>
    </void>
    <void property="molecularWeight">
     <double>79.22678136589266</double>
    </void>
    <void property="surfaceTension">
     <double>0.02563921156452839</double>
    </void>
    <void property="thermalConductivity">
     <double>0.13509100616988676</double>
    </void>
    <void property="vaporPressure">
     <double>25.192035075628347</double>
    </void>
    <void property="viscosity">
     <double>5.628880263771708E-4</double>
    </void>
    <void property="wghtFractions">
     <void method="add">
      <double>0.4</double>
     </void>
     <void method="add">
      <double>0.35000000000000003</double>
     </void>
     <void method="add">
      <double>0.25</double>
     </void>
    </void>
   </object>
  </void>
  <void property="systemName">
   <string>RollerWash</string>
  </void>
 </object>
</java>
